 CRYSTAL
 PRIMVEC
    6.350126987    0.000000000    0.000000000
    0.000000000    6.350126987    0.000000000
    0.000000000    0.000000000    6.350126987
 PRIMCOORD
           1           1
Pd        0.100000000    0.000000000    0.000000000
BEGIN_BLOCK_DATAGRID_3D
3D_PWSCF
DATAGRID_3D_UNKNOWN
          15          15          15
 -2.778181 -2.778181 -2.778181
  6.350127  0.000000  0.000000
  0.000000  6.350127  0.000000
  0.000000  0.000000  6.350127
  0.30001E-32  0.25673E-29  0.80820E-27  0.93599E-25  0.39877E-23  0.62501E-22
  0.36038E-21  0.76442E-21  0.59650E-21  0.17124E-21  0.18084E-22  0.70256E-24
  0.10041E-25  0.52794E-28  0.10212E-30  0.19955E-29  0.17076E-26  0.53757E-24
  0.62256E-22  0.26524E-20  0.41572E-19  0.23970E-18  0.50845E-18  0.39676E-18
  0.11390E-18  0.12028E-19  0.46730E-21  0.66788E-23  0.35116E-25  0.67923E-28
  0.48828E-27  0.41784E-24  0.13154E-21  0.15234E-19  0.64902E-18  0.10172E-16
  0.58653E-16  0.12441E-15  0.97083E-16  0.27869E-16  0.29432E-17  0.11434E-18
  0.16342E-20  0.85926E-23  0.16620E-25  0.43953E-25  0.37612E-22  0.11841E-19
  0.13713E-17  0.58423E-16  0.91569E-15  0.52798E-14  0.11199E-13  0.87391E-14
  0.25087E-14  0.26494E-15  0.10293E-16  0.14711E-18  0.77348E-21  0.14961E-23
  0.14555E-23  0.12456E-20  0.39211E-18  0.45411E-16  0.19347E-14  0.30323E-13
  0.17484E-12  0.37087E-12  0.28940E-12  0.83078E-13  0.87735E-14  0.34086E-15
  0.48716E-17  0.25614E-19  0.49544E-22  0.17732E-22  0.15174E-19  0.47769E-17
  0.55322E-15  0.23570E-13  0.36942E-12  0.21300E-11  0.45181E-11  0.35256E-11
  0.10121E-11  0.10688E-12  0.41525E-14  0.59348E-16  0.31204E-18  0.60357E-21
  0.79469E-22  0.68005E-19  0.21408E-16  0.24793E-14  0.10563E-12  0.16556E-11
  0.95461E-11  0.20249E-10  0.15801E-10  0.45359E-11  0.47902E-12  0.18610E-13
  0.26598E-15  0.13985E-17  0.27050E-20  0.13102E-21  0.11212E-18  0.35297E-16
  0.40878E-14  0.17416E-12  0.27296E-11  0.15739E-10  0.33385E-10  0.26051E-10
  0.74784E-11  0.78977E-12  0.30683E-13  0.43853E-15  0.23057E-17  0.44598E-20
  0.79469E-22  0.68005E-19  0.21408E-16  0.24793E-14  0.10563E-12  0.16556E-11
  0.95461E-11  0.20249E-10  0.15801E-10  0.45359E-11  0.47902E-12  0.18610E-13
  0.26598E-15  0.13985E-17  0.27050E-20  0.17732E-22  0.15174E-19  0.47769E-17
  0.55322E-15  0.23570E-13  0.36942E-12  0.21300E-11  0.45181E-11  0.35256E-11
  0.10121E-11  0.10688E-12  0.41525E-14  0.59348E-16  0.31204E-18  0.60357E-21
  0.14555E-23  0.12456E-20  0.39211E-18  0.45411E-16  0.19347E-14  0.30323E-13
  0.17484E-12  0.37087E-12  0.28940E-12  0.83078E-13  0.87735E-14  0.34086E-15
  0.48716E-17  0.25614E-19  0.49544E-22  0.43953E-25  0.37612E-22  0.11841E-19
  0.13713E-17  0.58423E-16  0.91569E-15  0.52798E-14  0.11199E-13  0.87391E-14
  0.25087E-14  0.26494E-15  0.10293E-16  0.14711E-18  0.77348E-21  0.14961E-23
  0.48828E-27  0.41784E-24  0.13154E-21  0.15234E-19  0.64902E-18  0.10172E-16
  0.58653E-16  0.12441E-15  0.97083E-16  0.27869E-16  0.29432E-17  0.11434E-18
  0.16342E-20  0.85926E-23  0.16620E-25  0.19955E-29  0.17076E-26  0.53757E-24
  0.62256E-22  0.26524E-20  0.41572E-19  0.23970E-18  0.50845E-18  0.39676E-18
  0.11390E-18  0.12028E-19  0.46730E-21  0.66788E-23  0.35116E-25  0.67923E-28
  0.30001E-32  0.25673E-29  0.80820E-27  0.93599E-25  0.39877E-23  0.62501E-22
  0.36038E-21  0.76442E-21  0.59650E-21  0.17124E-21  0.18084E-22  0.70256E-24
  0.10041E-25  0.52794E-28  0.10212E-30  0.19955E-29  0.17076E-26  0.53757E-24
  0.62256E-22  0.26524E-20  0.41572E-19  0.23970E-18  0.50845E-18  0.39676E-18
  0.11390E-18  0.12028E-19  0.46730E-21  0.66788E-23  0.35116E-25  0.67923E-28
  0.13273E-26  0.11358E-23  0.35756E-21  0.41409E-19  0.17642E-17  0.27651E-16
  0.15944E-15  0.33819E-15  0.26390E-15  0.75757E-16  0.80004E-17  0.31082E-18
  0.44423E-20  0.23357E-22  0.45178E-25  0.32477E-24  0.27792E-21  0.87492E-19
  0.10133E-16  0.43169E-15  0.67661E-14  0.39013E-13  0.82752E-13  0.64574E-13
  0.18537E-13  0.19576E-14  0.76055E-16  0.10870E-17  0.57153E-20  0.11055E-22
  0.29235E-22  0.25018E-19  0.78757E-17  0.91210E-15  0.38860E-13  0.60906E-12
  0.35118E-11  0.74491E-11  0.58128E-11  0.16687E-11  0.17622E-12  0.68463E-14
  0.97849E-16  0.51447E-18  0.99512E-21  0.96813E-21  0.82847E-18  0.26081E-15
  0.30205E-13  0.12869E-11  0.20169E-10  0.11630E-09  0.24668E-09  0.19249E-09
  0.55258E-10  0.58356E-11  0.22672E-12  0.32403E-14  0.17037E-16  0.32954E-19
  0.11794E-19  0.10093E-16  0.31773E-14  0.36797E-12  0.15677E-10  0.24571E-09
  0.14168E-08  0.30052E-08  0.23450E-08  0.67319E-09  0.71093E-10  0.27620E-11
  0.39475E-13  0.20755E-15  0.40146E-18  0.52858E-19  0.45233E-16  0.14240E-13
  0.16491E-11  0.70260E-10  0.11012E-08  0.63495E-08  0.13468E-07  0.10510E-07
  0.30170E-08  0.31862E-09  0.12378E-10  0.17691E-12  0.93019E-15  0.17992E-17
  0.87149E-19  0.74576E-16  0.23477E-13  0.27189E-11  0.11584E-09  0.18156E-08
  0.10469E-07  0.22205E-07  0.17328E-07  0.49742E-08  0.52531E-09  0.20408E-10
  0.29168E-12  0.15336E-14  0.29664E-17  0.52858E-19  0.45233E-16  0.14240E-13
  0.16491E-11  0.70260E-10  0.11012E-08  0.63495E-08  0.13468E-07  0.10510E-07
  0.30170E-08  0.31862E-09  0.12378E-10  0.17691E-12  0.93019E-15  0.17992E-17
  0.11794E-19  0.10093E-16  0.31773E-14  0.36797E-12  0.15677E-10  0.24571E-09
  0.14168E-08  0.30052E-08  0.23450E-08  0.67319E-09  0.71093E-10  0.27620E-11
  0.39475E-13  0.20755E-15  0.40146E-18  0.96813E-21  0.82847E-18  0.26081E-15
  0.30205E-13  0.12869E-11  0.20169E-10  0.11630E-09  0.24668E-09  0.19249E-09
  0.55258E-10  0.58356E-11  0.22672E-12  0.32403E-14  0.17037E-16  0.32954E-19
  0.29235E-22  0.25018E-19  0.78757E-17  0.91210E-15  0.38860E-13  0.60906E-12
  0.35118E-11  0.74491E-11  0.58128E-11  0.16687E-11  0.17622E-12  0.68463E-14
  0.97849E-16  0.51447E-18  0.99512E-21  0.32477E-24  0.27792E-21  0.87492E-19
  0.10133E-16  0.43169E-15  0.67661E-14  0.39013E-13  0.82752E-13  0.64574E-13
  0.18537E-13  0.19576E-14  0.76055E-16  0.10870E-17  0.57153E-20  0.11055E-22
  0.13273E-26  0.11358E-23  0.35756E-21  0.41409E-19  0.17642E-17  0.27651E-16
  0.15944E-15  0.33819E-15  0.26390E-15  0.75757E-16  0.80004E-17  0.31082E-18
  0.44423E-20  0.23357E-22  0.45178E-25  0.19955E-29  0.17076E-26  0.53757E-24
  0.62256E-22  0.26524E-20  0.41572E-19  0.23970E-18  0.50845E-18  0.39676E-18
  0.11390E-18  0.12028E-19  0.46730E-21  0.66788E-23  0.35116E-25  0.67923E-28
  0.48828E-27  0.41784E-24  0.13154E-21  0.15234E-19  0.64902E-18  0.10172E-16
  0.58653E-16  0.12441E-15  0.97083E-16  0.27869E-16  0.29432E-17  0.11434E-18
  0.16342E-20  0.85926E-23  0.16620E-25  0.32477E-24  0.27792E-21  0.87492E-19
  0.10133E-16  0.43169E-15  0.67661E-14  0.39013E-13  0.82752E-13  0.64574E-13
  0.18537E-13  0.19576E-14  0.76055E-16  0.10870E-17  0.57153E-20  0.11055E-22
  0.79469E-22  0.68005E-19  0.21408E-16  0.24793E-14  0.10563E-12  0.16556E-11
  0.95461E-11  0.20249E-10  0.15801E-10  0.45359E-11  0.47902E-12  0.18610E-13
  0.26598E-15  0.13985E-17  0.27050E-20  0.71536E-20  0.61216E-17  0.19271E-14
  0.22318E-12  0.95087E-11  0.14903E-09  0.85931E-09  0.18227E-08  0.14223E-08
  0.40831E-09  0.43120E-10  0.16752E-11  0.23943E-13  0.12589E-15  0.24350E-18
  0.23689E-18  0.20272E-15  0.63818E-13  0.73908E-11  0.31488E-09  0.49353E-08
  0.28456E-07  0.60361E-07  0.47101E-07  0.13521E-07  0.14279E-08  0.55476E-10
  0.79288E-12  0.41688E-14  0.80635E-17  0.28860E-17  0.24696E-14  0.77746E-12
  0.90039E-10  0.38361E-08  0.60124E-07  0.34667E-06  0.73534E-06  0.57381E-06
  0.16472E-06  0.17396E-07  0.67583E-09  0.96592E-11  0.50786E-13  0.98234E-16
  0.12934E-16  0.11068E-13  0.34843E-11  0.40353E-09  0.17192E-07  0.26946E-06
  0.15537E-05  0.32956E-05  0.25716E-05  0.73824E-06  0.77963E-07  0.30289E-08
  0.43290E-10  0.22761E-12  0.44025E-15  0.21325E-16  0.18248E-13  0.57447E-11
  0.66530E-09  0.28345E-07  0.44426E-06  0.25616E-05  0.54335E-05  0.42399E-05
  0.12171E-05  0.12854E-06  0.49938E-08  0.71372E-10  0.37526E-12  0.72585E-15
  0.12934E-16  0.11068E-13  0.34843E-11  0.40353E-09  0.17192E-07  0.26946E-06
  0.15537E-05  0.32956E-05  0.25716E-05  0.73824E-06  0.77963E-07  0.30289E-08
  0.43290E-10  0.22761E-12  0.44025E-15  0.28860E-17  0.24696E-14  0.77746E-12
  0.90039E-10  0.38361E-08  0.60124E-07  0.34667E-06  0.73534E-06  0.57381E-06
  0.16472E-06  0.17396E-07  0.67583E-09  0.96592E-11  0.50786E-13  0.98234E-16
  0.23689E-18  0.20272E-15  0.63818E-13  0.73908E-11  0.31488E-09  0.49353E-08
  0.28456E-07  0.60361E-07  0.47101E-07  0.13521E-07  0.14279E-08  0.55476E-10
  0.79288E-12  0.41688E-14  0.80635E-17  0.71536E-20  0.61216E-17  0.19271E-14
  0.22318E-12  0.95087E-11  0.14903E-09  0.85931E-09  0.18227E-08  0.14223E-08
  0.40831E-09  0.43120E-10  0.16752E-11  0.23943E-13  0.12589E-15  0.24350E-18
  0.79469E-22  0.68005E-19  0.21408E-16  0.24793E-14  0.10563E-12  0.16556E-11
  0.95461E-11  0.20249E-10  0.15801E-10  0.45359E-11  0.47902E-12  0.18610E-13
  0.26598E-15  0.13985E-17  0.27050E-20  0.32477E-24  0.27792E-21  0.87492E-19
  0.10133E-16  0.43169E-15  0.67661E-14  0.39013E-13  0.82752E-13  0.64574E-13
  0.18537E-13  0.19576E-14  0.76055E-16  0.10870E-17  0.57153E-20  0.11055E-22
  0.48828E-27  0.41784E-24  0.13154E-21  0.15234E-19  0.64902E-18  0.10172E-16
  0.58653E-16  0.12441E-15  0.97083E-16  0.27869E-16  0.29432E-17  0.11434E-18
  0.16342E-20  0.85926E-23  0.16620E-25  0.43953E-25  0.37612E-22  0.11841E-19
  0.13713E-17  0.58423E-16  0.91569E-15  0.52798E-14  0.11199E-13  0.87391E-14
  0.25087E-14  0.26494E-15  0.10293E-16  0.14711E-18  0.77348E-21  0.14961E-23
  0.29235E-22  0.25018E-19  0.78757E-17  0.91210E-15  0.38860E-13  0.60906E-12
  0.35118E-11  0.74491E-11  0.58128E-11  0.16687E-11  0.17622E-12  0.68463E-14
  0.97849E-16  0.51447E-18  0.99512E-21  0.71536E-20  0.61216E-17  0.19271E-14
  0.22318E-12  0.95087E-11  0.14903E-09  0.85931E-09  0.18227E-08  0.14223E-08
  0.40831E-09  0.43120E-10  0.16752E-11  0.23943E-13  0.12589E-15  0.24350E-18
  0.64395E-18  0.55105E-15  0.17347E-12  0.20090E-10  0.85594E-09  0.13416E-07
  0.77353E-07  0.16408E-06  0.12803E-06  0.36755E-07  0.38815E-08  0.15080E-09
  0.21553E-11  0.11332E-13  0.21919E-16  0.21325E-16  0.18248E-13  0.57447E-11
  0.66530E-09  0.28345E-07  0.44426E-06  0.25616E-05  0.54335E-05  0.42399E-05
  0.12171E-05  0.12854E-06  0.49938E-08  0.71372E-10  0.37526E-12  0.72585E-15
  0.25979E-15  0.22231E-12  0.69985E-10  0.81050E-08  0.34531E-06  0.54122E-05
  0.31206E-04  0.66194E-04  0.51653E-04  0.14828E-04  0.15659E-05  0.60837E-07
  0.86949E-09  0.45717E-11  0.88427E-14  0.11643E-14  0.99632E-12  0.31365E-09
  0.36324E-07  0.15476E-05  0.24256E-04  0.13986E-03  0.29666E-03  0.23149E-03
  0.66454E-04  0.70180E-05  0.27265E-06  0.38968E-08  0.20489E-10  0.39630E-13
  0.19196E-14  0.16427E-11  0.51712E-09  0.59889E-07  0.25515E-05  0.39991E-04
  0.23059E-03  0.48911E-03  0.38167E-03  0.10956E-03  0.11571E-04  0.44953E-06
  0.64247E-08  0.33780E-10  0.65339E-13  0.11643E-14  0.99632E-12  0.31365E-09
  0.36324E-07  0.15476E-05  0.24256E-04  0.13986E-03  0.29666E-03  0.23149E-03
  0.66454E-04  0.70180E-05  0.27265E-06  0.38968E-08  0.20489E-10  0.39630E-13
  0.25979E-15  0.22231E-12  0.69985E-10  0.81050E-08  0.34531E-06  0.54122E-05
  0.31206E-04  0.66194E-04  0.51653E-04  0.14828E-04  0.15659E-05  0.60837E-07
  0.86949E-09  0.45717E-11  0.88427E-14  0.21325E-16  0.18248E-13  0.57447E-11
  0.66530E-09  0.28345E-07  0.44426E-06  0.25616E-05  0.54335E-05  0.42399E-05
  0.12171E-05  0.12854E-06  0.49938E-08  0.71372E-10  0.37526E-12  0.72585E-15
  0.64395E-18  0.55105E-15  0.17347E-12  0.20090E-10  0.85594E-09  0.13416E-07
  0.77353E-07  0.16408E-06  0.12803E-06  0.36755E-07  0.38815E-08  0.15080E-09
  0.21553E-11  0.11332E-13  0.21919E-16  0.71536E-20  0.61216E-17  0.19271E-14
  0.22318E-12  0.95087E-11  0.14903E-09  0.85931E-09  0.18227E-08  0.14223E-08
  0.40831E-09  0.43120E-10  0.16752E-11  0.23943E-13  0.12589E-15  0.24350E-18
  0.29235E-22  0.25018E-19  0.78757E-17  0.91210E-15  0.38860E-13  0.60906E-12
  0.35118E-11  0.74491E-11  0.58128E-11  0.16687E-11  0.17622E-12  0.68463E-14
  0.97849E-16  0.51447E-18  0.99512E-21  0.43953E-25  0.37612E-22  0.11841E-19
  0.13713E-17  0.58423E-16  0.91569E-15  0.52798E-14  0.11199E-13  0.87391E-14
  0.25087E-14  0.26494E-15  0.10293E-16  0.14711E-18  0.77348E-21  0.14961E-23
  0.14555E-23  0.12456E-20  0.39211E-18  0.45411E-16  0.19347E-14  0.30323E-13
  0.17484E-12  0.37087E-12  0.28940E-12  0.83078E-13  0.87735E-14  0.34086E-15
  0.48716E-17  0.25614E-19  0.49544E-22  0.96813E-21  0.82847E-18  0.26081E-15
  0.30205E-13  0.12869E-11  0.20169E-10  0.11630E-09  0.24668E-09  0.19249E-09
  0.55258E-10  0.58356E-11  0.22672E-12  0.32403E-14  0.17037E-16  0.32954E-19
  0.23689E-18  0.20272E-15  0.63818E-13  0.73908E-11  0.31488E-09  0.49353E-08
  0.28456E-07  0.60361E-07  0.47101E-07  0.13521E-07  0.14279E-08  0.55476E-10
  0.79288E-12  0.41688E-14  0.80635E-17  0.21325E-16  0.18248E-13  0.57447E-11
  0.66530E-09  0.28345E-07  0.44426E-06  0.25616E-05  0.54335E-05  0.42399E-05
  0.12171E-05  0.12854E-06  0.49938E-08  0.71372E-10  0.37526E-12  0.72585E-15
  0.70617E-15  0.60430E-12  0.19024E-09  0.22032E-07  0.93866E-06  0.14712E-04
  0.84828E-04  0.17993E-03  0.14041E-03  0.40306E-04  0.42566E-05  0.16537E-06
  0.23635E-08  0.12427E-10  0.24037E-13  0.86029E-14  0.73619E-11  0.23176E-08
  0.26840E-06  0.11435E-04  0.17923E-03  0.10334E-02  0.21920E-02  0.17105E-02
  0.49103E-03  0.51856E-04  0.20146E-05  0.28794E-07  0.15139E-09  0.29283E-12
  0.38556E-13  0.32994E-10  0.10387E-07  0.12029E-05  0.51249E-04  0.80324E-03
  0.46314E-02  0.98240E-02  0.76660E-02  0.22007E-02  0.23240E-03  0.90290E-05
  0.12904E-06  0.67849E-09  0.13124E-11  0.63568E-13  0.54397E-10  0.17125E-07
  0.19832E-05  0.84495E-04  0.13243E-02  0.76359E-02  0.16197E-01  0.12639E-01
  0.36283E-02  0.38317E-03  0.14886E-04  0.21276E-06  0.11186E-08  0.21637E-11
  0.38556E-13  0.32994E-10  0.10387E-07  0.12029E-05  0.51249E-04  0.80324E-03
  0.46314E-02  0.98240E-02  0.76660E-02  0.22007E-02  0.23240E-03  0.90290E-05
  0.12904E-06  0.67849E-09  0.13124E-11  0.86029E-14  0.73619E-11  0.23176E-08
  0.26840E-06  0.11435E-04  0.17923E-03  0.10334E-02  0.21920E-02  0.17105E-02
  0.49103E-03  0.51856E-04  0.20146E-05  0.28794E-07  0.15139E-09  0.29283E-12
  0.70617E-15  0.60430E-12  0.19024E-09  0.22032E-07  0.93866E-06  0.14712E-04
  0.84828E-04  0.17993E-03  0.14041E-03  0.40306E-04  0.42566E-05  0.16537E-06
  0.23635E-08  0.12427E-10  0.24037E-13  0.21325E-16  0.18248E-13  0.57447E-11
  0.66530E-09  0.28345E-07  0.44426E-06  0.25616E-05  0.54335E-05  0.42399E-05
  0.12171E-05  0.12854E-06  0.49938E-08  0.71372E-10  0.37526E-12  0.72585E-15
  0.23689E-18  0.20272E-15  0.63818E-13  0.73908E-11  0.31488E-09  0.49353E-08
  0.28456E-07  0.60361E-07  0.47101E-07  0.13521E-07  0.14279E-08  0.55476E-10
  0.79288E-12  0.41688E-14  0.80635E-17  0.96813E-21  0.82847E-18  0.26081E-15
  0.30205E-13  0.12869E-11  0.20169E-10  0.11630E-09  0.24668E-09  0.19249E-09
  0.55258E-10  0.58356E-11  0.22672E-12  0.32403E-14  0.17037E-16  0.32954E-19
  0.14555E-23  0.12456E-20  0.39211E-18  0.45411E-16  0.19347E-14  0.30323E-13
  0.17484E-12  0.37087E-12  0.28940E-12  0.83078E-13  0.87735E-14  0.34086E-15
  0.48716E-17  0.25614E-19  0.49544E-22  0.17732E-22  0.15174E-19  0.47769E-17
  0.55322E-15  0.23570E-13  0.36942E-12  0.21300E-11  0.45181E-11  0.35256E-11
  0.10121E-11  0.10688E-12  0.41525E-14  0.59348E-16  0.31204E-18  0.60357E-21
  0.11794E-19  0.10093E-16  0.31773E-14  0.36797E-12  0.15677E-10  0.24571E-09
  0.14168E-08  0.30052E-08  0.23450E-08  0.67319E-09  0.71093E-10  0.27620E-11
  0.39475E-13  0.20755E-15  0.40146E-18  0.28860E-17  0.24696E-14  0.77746E-12
  0.90039E-10  0.38361E-08  0.60124E-07  0.34667E-06  0.73534E-06  0.57381E-06
  0.16472E-06  0.17396E-07  0.67583E-09  0.96592E-11  0.50786E-13  0.98234E-16
  0.25979E-15  0.22231E-12  0.69985E-10  0.81050E-08  0.34531E-06  0.54122E-05
  0.31206E-04  0.66194E-04  0.51653E-04  0.14828E-04  0.15659E-05  0.60837E-07
  0.86949E-09  0.45717E-11  0.88427E-14  0.86029E-14  0.73619E-11  0.23176E-08
  0.26840E-06  0.11435E-04  0.17923E-03  0.10334E-02  0.21920E-02  0.17105E-02
  0.49103E-03  0.51856E-04  0.20146E-05  0.28794E-07  0.15139E-09  0.29283E-12
  0.10481E-12  0.89686E-10  0.28234E-07  0.32698E-05  0.13931E-03  0.21834E-02
  0.12590E-01  0.26704E-01  0.20838E-01  0.59820E-02  0.63174E-03  0.24543E-04
  0.35078E-06  0.18443E-08  0.35674E-11  0.46971E-12  0.40194E-09  0.12654E-06
  0.14654E-04  0.62434E-03  0.97855E-02  0.56422E-01  0.11968E+00  0.93391E-01
  0.26809E-01  0.28313E-02  0.11000E-03  0.15721E-05  0.82657E-08  0.15988E-10
  0.77441E-12  0.66269E-09  0.20862E-06  0.24161E-04  0.10294E-02  0.16134E-01
  0.93025E-01  0.19732E+00  0.15398E+00  0.44201E-01  0.46679E-02  0.18135E-03
  0.25919E-05  0.13628E-07  0.26360E-10  0.46971E-12  0.40194E-09  0.12654E-06
  0.14654E-04  0.62434E-03  0.97855E-02  0.56422E-01  0.11968E+00  0.93391E-01
  0.26809E-01  0.28313E-02  0.11000E-03  0.15721E-05  0.82657E-08  0.15988E-10
  0.10481E-12  0.89686E-10  0.28234E-07  0.32698E-05  0.13931E-03  0.21834E-02
  0.12590E-01  0.26704E-01  0.20838E-01  0.59820E-02  0.63174E-03  0.24543E-04
  0.35078E-06  0.18443E-08  0.35674E-11  0.86029E-14  0.73619E-11  0.23176E-08
  0.26840E-06  0.11435E-04  0.17923E-03  0.10334E-02  0.21920E-02  0.17105E-02
  0.49103E-03  0.51856E-04  0.20146E-05  0.28794E-07  0.15139E-09  0.29283E-12
  0.25979E-15  0.22231E-12  0.69985E-10  0.81050E-08  0.34531E-06  0.54122E-05
  0.31206E-04  0.66194E-04  0.51653E-04  0.14828E-04  0.15659E-05  0.60837E-07
  0.86949E-09  0.45717E-11  0.88427E-14  0.28860E-17  0.24696E-14  0.77746E-12
  0.90039E-10  0.38361E-08  0.60124E-07  0.34667E-06  0.73534E-06  0.57381E-06
  0.16472E-06  0.17396E-07  0.67583E-09  0.96592E-11  0.50786E-13  0.98234E-16
  0.11794E-19  0.10093E-16  0.31773E-14  0.36797E-12  0.15677E-10  0.24571E-09
  0.14168E-08  0.30052E-08  0.23450E-08  0.67319E-09  0.71093E-10  0.27620E-11
  0.39475E-13  0.20755E-15  0.40146E-18  0.17732E-22  0.15174E-19  0.47769E-17
  0.55322E-15  0.23570E-13  0.36942E-12  0.21300E-11  0.45181E-11  0.35256E-11
  0.10121E-11  0.10688E-12  0.41525E-14  0.59348E-16  0.31204E-18  0.60357E-21
  0.79469E-22  0.68005E-19  0.21408E-16  0.24793E-14  0.10563E-12  0.16556E-11
  0.95461E-11  0.20249E-10  0.15801E-10  0.45359E-11  0.47902E-12  0.18610E-13
  0.26598E-15  0.13985E-17  0.27050E-20  0.52858E-19  0.45233E-16  0.14240E-13
  0.16491E-11  0.70260E-10  0.11012E-08  0.63495E-08  0.13468E-07  0.10510E-07
  0.30170E-08  0.31862E-09  0.12378E-10  0.17691E-12  0.93019E-15  0.17992E-17
  0.12934E-16  0.11068E-13  0.34843E-11  0.40353E-09  0.17192E-07  0.26946E-06
  0.15537E-05  0.32956E-05  0.25716E-05  0.73824E-06  0.77963E-07  0.30289E-08
  0.43290E-10  0.22761E-12  0.44025E-15  0.11643E-14  0.99632E-12  0.31365E-09
  0.36324E-07  0.15476E-05  0.24256E-04  0.13986E-03  0.29666E-03  0.23149E-03
  0.66454E-04  0.70180E-05  0.27265E-06  0.38968E-08  0.20489E-10  0.39630E-13
  0.38556E-13  0.32994E-10  0.10387E-07  0.12029E-05  0.51249E-04  0.80324E-03
  0.46314E-02  0.98240E-02  0.76660E-02  0.22007E-02  0.23240E-03  0.90290E-05
  0.12904E-06  0.67849E-09  0.13124E-11  0.46971E-12  0.40194E-09  0.12654E-06
  0.14654E-04  0.62434E-03  0.97855E-02  0.56422E-01  0.11968E+00  0.93391E-01
  0.26809E-01  0.28313E-02  0.11000E-03  0.15721E-05  0.82657E-08  0.15988E-10
  0.21051E-11  0.18014E-08  0.56709E-06  0.65676E-04  0.27981E-02  0.43856E-01
  0.25287E+00  0.53637E+00  0.41855E+00  0.12015E+00  0.12689E-01  0.49296E-03
  0.70456E-05  0.37044E-07  0.71653E-10  0.34707E-11  0.29700E-08  0.93498E-06
  0.10828E-03  0.46133E-02  0.72306E-01  0.41691E+00  0.88433E+00  0.69007E+00
  0.19810E+00  0.20920E-01  0.81276E-03  0.11616E-04  0.61076E-07  0.11814E-09
  0.21051E-11  0.18014E-08  0.56709E-06  0.65676E-04  0.27981E-02  0.43856E-01
  0.25287E+00  0.53637E+00  0.41855E+00  0.12015E+00  0.12689E-01  0.49296E-03
  0.70456E-05  0.37044E-07  0.71653E-10  0.46971E-12  0.40194E-09  0.12654E-06
  0.14654E-04  0.62434E-03  0.97855E-02  0.56422E-01  0.11968E+00  0.93391E-01
  0.26809E-01  0.28313E-02  0.11000E-03  0.15721E-05  0.82657E-08  0.15988E-10
  0.38556E-13  0.32994E-10  0.10387E-07  0.12029E-05  0.51249E-04  0.80324E-03
  0.46314E-02  0.98240E-02  0.76660E-02  0.22007E-02  0.23240E-03  0.90290E-05
  0.12904E-06  0.67849E-09  0.13124E-11  0.11643E-14  0.99632E-12  0.31365E-09
  0.36324E-07  0.15476E-05  0.24256E-04  0.13986E-03  0.29666E-03  0.23149E-03
  0.66454E-04  0.70180E-05  0.27265E-06  0.38968E-08  0.20489E-10  0.39630E-13
  0.12934E-16  0.11068E-13  0.34843E-11  0.40353E-09  0.17192E-07  0.26946E-06
  0.15537E-05  0.32956E-05  0.25716E-05  0.73824E-06  0.77963E-07  0.30289E-08
  0.43290E-10  0.22761E-12  0.44025E-15  0.52858E-19  0.45233E-16  0.14240E-13
  0.16491E-11  0.70260E-10  0.11012E-08  0.63495E-08  0.13468E-07  0.10510E-07
  0.30170E-08  0.31862E-09  0.12378E-10  0.17691E-12  0.93019E-15  0.17992E-17
  0.79469E-22  0.68005E-19  0.21408E-16  0.24793E-14  0.10563E-12  0.16556E-11
  0.95461E-11  0.20249E-10  0.15801E-10  0.45359E-11  0.47902E-12  0.18610E-13
  0.26598E-15  0.13985E-17  0.27050E-20  0.13102E-21  0.11212E-18  0.35297E-16
  0.40878E-14  0.17416E-12  0.27296E-11  0.15739E-10  0.33385E-10  0.26051E-10
  0.74784E-11  0.78977E-12  0.30683E-13  0.43853E-15  0.23057E-17  0.44598E-20
  0.87149E-19  0.74576E-16  0.23477E-13  0.27189E-11  0.11584E-09  0.18156E-08
  0.10469E-07  0.22205E-07  0.17328E-07  0.49742E-08  0.52531E-09  0.20408E-10
  0.29168E-12  0.15336E-14  0.29664E-17  0.21325E-16  0.18248E-13  0.57447E-11
  0.66530E-09  0.28345E-07  0.44426E-06  0.25616E-05  0.54335E-05  0.42399E-05
  0.12171E-05  0.12854E-06  0.49938E-08  0.71372E-10  0.37526E-12  0.72585E-15
  0.19196E-14  0.16427E-11  0.51712E-09  0.59889E-07  0.25515E-05  0.39991E-04
  0.23059E-03  0.48911E-03  0.38167E-03  0.10956E-03  0.11571E-04  0.44953E-06
  0.64247E-08  0.33780E-10  0.65339E-13  0.63568E-13  0.54397E-10  0.17125E-07
  0.19832E-05  0.84495E-04  0.13243E-02  0.76359E-02  0.16197E-01  0.12639E-01
  0.36283E-02  0.38317E-03  0.14886E-04  0.21276E-06  0.11186E-08  0.21637E-11
  0.77441E-12  0.66269E-09  0.20862E-06  0.24161E-04  0.10294E-02  0.16134E-01
  0.93025E-01  0.19732E+00  0.15398E+00  0.44201E-01  0.46679E-02  0.18135E-03
  0.25919E-05  0.13628E-07  0.26360E-10  0.34707E-11  0.29700E-08  0.93498E-06
  0.10828E-03  0.46133E-02  0.72306E-01  0.41691E+00  0.88433E+00  0.69007E+00
  0.19810E+00  0.20920E-01  0.81276E-03  0.11616E-04  0.61076E-07  0.11814E-09
  0.57222E-11  0.48967E-08  0.15415E-05  0.17853E-03  0.76060E-02  0.11921E+00
  0.68736E+00  0.14580E+01  0.11377E+01  0.32661E+00  0.34492E-01  0.13400E-02
  0.19152E-04  0.10070E-06  0.19477E-09  0.34707E-11  0.29700E-08  0.93498E-06
  0.10828E-03  0.46133E-02  0.72306E-01  0.41691E+00  0.88433E+00  0.69007E+00
  0.19810E+00  0.20920E-01  0.81276E-03  0.11616E-04  0.61076E-07  0.11814E-09
  0.77441E-12  0.66269E-09  0.20862E-06  0.24161E-04  0.10294E-02  0.16134E-01
  0.93025E-01  0.19732E+00  0.15398E+00  0.44201E-01  0.46679E-02  0.18135E-03
  0.25919E-05  0.13628E-07  0.26360E-10  0.63568E-13  0.54397E-10  0.17125E-07
  0.19832E-05  0.84495E-04  0.13243E-02  0.76359E-02  0.16197E-01  0.12639E-01
  0.36283E-02  0.38317E-03  0.14886E-04  0.21276E-06  0.11186E-08  0.21637E-11
  0.19196E-14  0.16427E-11  0.51712E-09  0.59889E-07  0.25515E-05  0.39991E-04
  0.23059E-03  0.48911E-03  0.38167E-03  0.10956E-03  0.11571E-04  0.44953E-06
  0.64247E-08  0.33780E-10  0.65339E-13  0.21325E-16  0.18248E-13  0.57447E-11
  0.66530E-09  0.28345E-07  0.44426E-06  0.25616E-05  0.54335E-05  0.42399E-05
  0.12171E-05  0.12854E-06  0.49938E-08  0.71372E-10  0.37526E-12  0.72585E-15
  0.87149E-19  0.74576E-16  0.23477E-13  0.27189E-11  0.11584E-09  0.18156E-08
  0.10469E-07  0.22205E-07  0.17328E-07  0.49742E-08  0.52531E-09  0.20408E-10
  0.29168E-12  0.15336E-14  0.29664E-17  0.13102E-21  0.11212E-18  0.35297E-16
  0.40878E-14  0.17416E-12  0.27296E-11  0.15739E-10  0.33385E-10  0.26051E-10
  0.74784E-11  0.78977E-12  0.30683E-13  0.43853E-15  0.23057E-17  0.44598E-20
  0.79469E-22  0.68005E-19  0.21408E-16  0.24793E-14  0.10563E-12  0.16556E-11
  0.95461E-11  0.20249E-10  0.15801E-10  0.45359E-11  0.47902E-12  0.18610E-13
  0.26598E-15  0.13985E-17  0.27050E-20  0.52858E-19  0.45233E-16  0.14240E-13
  0.16491E-11  0.70260E-10  0.11012E-08  0.63495E-08  0.13468E-07  0.10510E-07
  0.30170E-08  0.31862E-09  0.12378E-10  0.17691E-12  0.93019E-15  0.17992E-17
  0.12934E-16  0.11068E-13  0.34843E-11  0.40353E-09  0.17192E-07  0.26946E-06
  0.15537E-05  0.32956E-05  0.25716E-05  0.73824E-06  0.77963E-07  0.30289E-08
  0.43290E-10  0.22761E-12  0.44025E-15  0.11643E-14  0.99632E-12  0.31365E-09
  0.36324E-07  0.15476E-05  0.24256E-04  0.13986E-03  0.29666E-03  0.23149E-03
  0.66454E-04  0.70180E-05  0.27265E-06  0.38968E-08  0.20489E-10  0.39630E-13
  0.38556E-13  0.32994E-10  0.10387E-07  0.12029E-05  0.51249E-04  0.80324E-03
  0.46314E-02  0.98240E-02  0.76660E-02  0.22007E-02  0.23240E-03  0.90290E-05
  0.12904E-06  0.67849E-09  0.13124E-11  0.46971E-12  0.40194E-09  0.12654E-06
  0.14654E-04  0.62434E-03  0.97855E-02  0.56422E-01  0.11968E+00  0.93391E-01
  0.26809E-01  0.28313E-02  0.11000E-03  0.15721E-05  0.82657E-08  0.15988E-10
  0.21051E-11  0.18014E-08  0.56709E-06  0.65676E-04  0.27981E-02  0.43856E-01
  0.25287E+00  0.53637E+00  0.41855E+00  0.12015E+00  0.12689E-01  0.49296E-03
  0.70456E-05  0.37044E-07  0.71653E-10  0.34707E-11  0.29700E-08  0.93498E-06
  0.10828E-03  0.46133E-02  0.72306E-01  0.41691E+00  0.88433E+00  0.69007E+00
  0.19810E+00  0.20920E-01  0.81276E-03  0.11616E-04  0.61076E-07  0.11814E-09
  0.21051E-11  0.18014E-08  0.56709E-06  0.65676E-04  0.27981E-02  0.43856E-01
  0.25287E+00  0.53637E+00  0.41855E+00  0.12015E+00  0.12689E-01  0.49296E-03
  0.70456E-05  0.37044E-07  0.71653E-10  0.46971E-12  0.40194E-09  0.12654E-06
  0.14654E-04  0.62434E-03  0.97855E-02  0.56422E-01  0.11968E+00  0.93391E-01
  0.26809E-01  0.28313E-02  0.11000E-03  0.15721E-05  0.82657E-08  0.15988E-10
  0.38556E-13  0.32994E-10  0.10387E-07  0.12029E-05  0.51249E-04  0.80324E-03
  0.46314E-02  0.98240E-02  0.76660E-02  0.22007E-02  0.23240E-03  0.90290E-05
  0.12904E-06  0.67849E-09  0.13124E-11  0.11643E-14  0.99632E-12  0.31365E-09
  0.36324E-07  0.15476E-05  0.24256E-04  0.13986E-03  0.29666E-03  0.23149E-03
  0.66454E-04  0.70180E-05  0.27265E-06  0.38968E-08  0.20489E-10  0.39630E-13
  0.12934E-16  0.11068E-13  0.34843E-11  0.40353E-09  0.17192E-07  0.26946E-06
  0.15537E-05  0.32956E-05  0.25716E-05  0.73824E-06  0.77963E-07  0.30289E-08
  0.43290E-10  0.22761E-12  0.44025E-15  0.52858E-19  0.45233E-16  0.14240E-13
  0.16491E-11  0.70260E-10  0.11012E-08  0.63495E-08  0.13468E-07  0.10510E-07
  0.30170E-08  0.31862E-09  0.12378E-10  0.17691E-12  0.93019E-15  0.17992E-17
  0.79469E-22  0.68005E-19  0.21408E-16  0.24793E-14  0.10563E-12  0.16556E-11
  0.95461E-11  0.20249E-10  0.15801E-10  0.45359E-11  0.47902E-12  0.18610E-13
  0.26598E-15  0.13985E-17  0.27050E-20  0.17732E-22  0.15174E-19  0.47769E-17
  0.55322E-15  0.23570E-13  0.36942E-12  0.21300E-11  0.45181E-11  0.35256E-11
  0.10121E-11  0.10688E-12  0.41525E-14  0.59348E-16  0.31204E-18  0.60357E-21
  0.11794E-19  0.10093E-16  0.31773E-14  0.36797E-12  0.15677E-10  0.24571E-09
  0.14168E-08  0.30052E-08  0.23450E-08  0.67319E-09  0.71093E-10  0.27620E-11
  0.39475E-13  0.20755E-15  0.40146E-18  0.28860E-17  0.24696E-14  0.77746E-12
  0.90039E-10  0.38361E-08  0.60124E-07  0.34667E-06  0.73534E-06  0.57381E-06
  0.16472E-06  0.17396E-07  0.67583E-09  0.96592E-11  0.50786E-13  0.98234E-16
  0.25979E-15  0.22231E-12  0.69985E-10  0.81050E-08  0.34531E-06  0.54122E-05
  0.31206E-04  0.66194E-04  0.51653E-04  0.14828E-04  0.15659E-05  0.60837E-07
  0.86949E-09  0.45717E-11  0.88427E-14  0.86029E-14  0.73619E-11  0.23176E-08
  0.26840E-06  0.11435E-04  0.17923E-03  0.10334E-02  0.21920E-02  0.17105E-02
  0.49103E-03  0.51856E-04  0.20146E-05  0.28794E-07  0.15139E-09  0.29283E-12
  0.10481E-12  0.89686E-10  0.28234E-07  0.32698E-05  0.13931E-03  0.21834E-02
  0.12590E-01  0.26704E-01  0.20838E-01  0.59820E-02  0.63174E-03  0.24543E-04
  0.35078E-06  0.18443E-08  0.35674E-11  0.46971E-12  0.40194E-09  0.12654E-06
  0.14654E-04  0.62434E-03  0.97855E-02  0.56422E-01  0.11968E+00  0.93391E-01
  0.26809E-01  0.28313E-02  0.11000E-03  0.15721E-05  0.82657E-08  0.15988E-10
  0.77441E-12  0.66269E-09  0.20862E-06  0.24161E-04  0.10294E-02  0.16134E-01
  0.93025E-01  0.19732E+00  0.15398E+00  0.44201E-01  0.46679E-02  0.18135E-03
  0.25919E-05  0.13628E-07  0.26360E-10  0.46971E-12  0.40194E-09  0.12654E-06
  0.14654E-04  0.62434E-03  0.97855E-02  0.56422E-01  0.11968E+00  0.93391E-01
  0.26809E-01  0.28313E-02  0.11000E-03  0.15721E-05  0.82657E-08  0.15988E-10
  0.10481E-12  0.89686E-10  0.28234E-07  0.32698E-05  0.13931E-03  0.21834E-02
  0.12590E-01  0.26704E-01  0.20838E-01  0.59820E-02  0.63174E-03  0.24543E-04
  0.35078E-06  0.18443E-08  0.35674E-11  0.86029E-14  0.73619E-11  0.23176E-08
  0.26840E-06  0.11435E-04  0.17923E-03  0.10334E-02  0.21920E-02  0.17105E-02
  0.49103E-03  0.51856E-04  0.20146E-05  0.28794E-07  0.15139E-09  0.29283E-12
  0.25979E-15  0.22231E-12  0.69985E-10  0.81050E-08  0.34531E-06  0.54122E-05
  0.31206E-04  0.66194E-04  0.51653E-04  0.14828E-04  0.15659E-05  0.60837E-07
  0.86949E-09  0.45717E-11  0.88427E-14  0.28860E-17  0.24696E-14  0.77746E-12
  0.90039E-10  0.38361E-08  0.60124E-07  0.34667E-06  0.73534E-06  0.57381E-06
  0.16472E-06  0.17396E-07  0.67583E-09  0.96592E-11  0.50786E-13  0.98234E-16
  0.11794E-19  0.10093E-16  0.31773E-14  0.36797E-12  0.15677E-10  0.24571E-09
  0.14168E-08  0.30052E-08  0.23450E-08  0.67319E-09  0.71093E-10  0.27620E-11
  0.39475E-13  0.20755E-15  0.40146E-18  0.17732E-22  0.15174E-19  0.47769E-17