3
Lattice="8.46683536902 0.0 0.0 0.0 8.46683536902 0.0 0.0 0.0 8.46683536902" Properties=species:S:1:pos:R:3:Z:I:1 Energy=T pbc="T T T"
Pt      4.23341768       4.79623268       4.23341768       78 
H      5.26791768       3.67073268       4.23341768        1 
H      3.19891768       3.67060268       4.23341768        1 
