113
Lattice="13.96 0.0 0.0 0.0 13.96 0.0 0.0 0.0 13.96" Properties=species:S:1:pos:R:3:Z:I:1:magmoms:R:1:tags:I:1:forces:R:3 energy=nan pbc="F F F"
Li      1.74500000       1.74500000       5.23500000        3       0.00000000        0              nan              nan              nan 
Li      1.74500000       1.74500000       8.72500000        3       0.00000000        0              nan              nan              nan 
Li      1.74500000       5.23500000       1.74500000        3       0.00000000        0              nan              nan              nan 
Li      1.74500000       5.23500000       5.23500000        3       0.00000000        0              nan              nan              nan 
Li      0.00000000       3.49000000       6.98000000        3       0.00000000        0              nan              nan              nan 
Li      1.74500000       5.23500000       8.72500000        3       0.00000000        0              nan              nan              nan 
Li      1.74500000       5.23500000      12.21500000        3       0.00000000        0              nan              nan              nan 
Li      1.74500000       8.72500000       1.74500000        3       0.00000000        0              nan              nan              nan 
Li      0.00000000       6.98000000       3.49000000        3       0.00000000        0              nan              nan              nan 
Li      1.74500000       8.72500000       5.23500000        3       0.00000000        0              nan              nan              nan 
Li      0.00000000       6.98000000       6.98000000        3       0.00000000        0              nan              nan              nan 
Li      1.74500000       8.72500000       8.72500000        3       0.00000000        0              nan              nan              nan 
Li      0.00000000       6.98000000      10.47000000        3       0.00000000        0              nan              nan              nan 
Li      1.74500000       8.72500000      12.21500000        3       0.00000000        0              nan              nan              nan 
Li      1.74500000      12.21500000       5.23500000        3       0.00000000        0              nan              nan              nan 
Li      0.00000000      10.47000000       6.98000000        3       0.00000000        0              nan              nan              nan 
Li      1.74500000      12.21500000       8.72500000        3       0.00000000        0              nan              nan              nan 
Li      5.23500000       1.74500000       1.74500000        3       0.00000000        0              nan              nan              nan 
Li      5.23500000       1.74500000       5.23500000        3       0.00000000        0              nan              nan              nan 
Li      3.49000000       0.00000000       6.98000000        3       0.00000000        0              nan              nan              nan 
Li      5.23500000       1.74500000       8.72500000        3       0.00000000        0              nan              nan              nan 
Li      5.23500000       1.74500000      12.21500000        3       0.00000000        0              nan              nan              nan 
Li      5.23500000       5.23500000       1.74500000        3       0.00000000        0              nan              nan              nan 
Li      3.49000000       3.49000000       3.49000000        3       0.00000000        0              nan              nan              nan 
Li      5.23500000       5.23500000       5.23500000        3       0.00000000        0              nan              nan              nan 
Li      3.49000000       3.49000000       6.98000000        3       0.00000000        0              nan              nan              nan 
Li      5.23500000       5.23500000       8.72500000        3       0.00000000        0              nan              nan              nan 
Li      3.49000000       3.49000000      10.47000000        3       0.00000000        0              nan              nan              nan 
Li      5.23500000       5.23500000      12.21500000        3       0.00000000        0              nan              nan              nan 
Li      3.49000000       6.98000000       0.00000000        3       0.00000000        0              nan              nan              nan 
Li      5.23500000       8.72500000       1.74500000        3       0.00000000        0              nan              nan              nan 
Li      3.49000000       6.98000000       3.49000000        3       0.00000000        0              nan              nan              nan 
Li      5.23500000       8.72500000       5.23500000        3       0.00000000        0              nan              nan              nan 
Li      3.49000000       6.98000000       6.98000000        3       0.00000000        0              nan              nan              nan 
Li      5.23500000       8.72500000       8.72500000        3       0.00000000        0              nan              nan              nan 
Li      3.49000000       6.98000000      10.47000000        3       0.00000000        0              nan              nan              nan 
Li      5.23500000       8.72500000      12.21500000        3       0.00000000        0              nan              nan              nan 
Li      3.49000000       6.98000000      13.96000000        3       0.00000000        0              nan              nan              nan 
Li      5.23500000      12.21500000       1.74500000        3       0.00000000        0              nan              nan              nan 
Li      3.49000000      10.47000000       3.49000000        3       0.00000000        0              nan              nan              nan 
Li      5.23500000      12.21500000       5.23500000        3       0.00000000        0              nan              nan              nan 
Li      3.49000000      10.47000000       6.98000000        3       0.00000000        0              nan              nan              nan 
Li      5.23500000      12.21500000       8.72500000        3       0.00000000        0              nan              nan              nan 
Li      3.49000000      10.47000000      10.47000000        3       0.00000000        0              nan              nan              nan 
Li      5.23500000      12.21500000      12.21500000        3       0.00000000        0              nan              nan              nan 
Li      3.49000000      13.96000000       6.98000000        3       0.00000000        0              nan              nan              nan 
Li      8.72500000       1.74500000       1.74500000        3       0.00000000        0              nan              nan              nan 
Li      6.98000000       0.00000000       3.49000000        3       0.00000000        0              nan              nan              nan 
Li      8.72500000       1.74500000       5.23500000        3       0.00000000        0              nan              nan              nan 
Li      6.98000000       0.00000000       6.98000000        3       0.00000000        0              nan              nan              nan 
Li      8.72500000       1.74500000       8.72500000        3       0.00000000        0              nan              nan              nan 
Li      6.98000000       0.00000000      10.47000000        3       0.00000000        0              nan              nan              nan 
Li      8.72500000       1.74500000      12.21500000        3       0.00000000        0              nan              nan              nan 
Li      6.98000000       3.49000000       0.00000000        3       0.00000000        0              nan              nan              nan 
Li      8.72500000       5.23500000       1.74500000        3       0.00000000        0              nan              nan              nan 
Li      6.98000000       3.49000000       3.49000000        3       0.00000000        0              nan              nan              nan 
Li      8.72500000       5.23500000       5.23500000        3       0.00000000        0              nan              nan              nan 
Li      6.98000000       3.49000000       6.98000000        3       0.00000000        0              nan              nan              nan 
Li      8.72500000       5.23500000       8.72500000        3       0.00000000        0              nan              nan              nan 
Li      6.98000000       3.49000000      10.47000000        3       0.00000000        0              nan              nan              nan 
Li      8.72500000       5.23500000      12.21500000        3       0.00000000        0              nan              nan              nan 
Li      6.98000000       3.49000000      13.96000000        3       0.00000000        0              nan              nan              nan 
Li      6.98000000       6.98000000       0.00000000        3       0.00000000        0              nan              nan              nan 
Li      8.72500000       8.72500000       1.74500000        3       0.00000000        0              nan              nan              nan 
Li      6.98000000       6.98000000       3.49000000        3       0.00000000        0              nan              nan              nan 
Li      8.72500000       8.72500000       5.23500000        3       0.00000000        0              nan              nan              nan 
Li      6.98000000       6.98000000       6.98000000        3       0.00000000        0              nan              nan              nan 
Li      8.72500000       8.72500000       8.72500000        3       0.00000000        0              nan              nan              nan 
Li      6.98000000       6.98000000      10.47000000        3       0.00000000        0              nan              nan              nan 
Li      8.72500000       8.72500000      12.21500000        3       0.00000000        0              nan              nan              nan 
Li      6.98000000       6.98000000      13.96000000        3       0.00000000        0              nan              nan              nan 
Li      6.98000000      10.47000000       0.00000000        3       0.00000000        0              nan              nan              nan 
Li      8.72500000      12.21500000       1.74500000        3       0.00000000        0              nan              nan              nan 
Li      6.98000000      10.47000000       3.49000000        3       0.00000000        0              nan              nan              nan 
Li      8.72500000      12.21500000       5.23500000        3       0.00000000        0              nan              nan              nan 
Li      6.98000000      10.47000000       6.98000000        3       0.00000000        0              nan              nan              nan 
Li      8.72500000      12.21500000       8.72500000        3       0.00000000        0              nan              nan              nan 
Li      6.98000000      10.47000000      10.47000000        3       0.00000000        0              nan              nan              nan 
Li      8.72500000      12.21500000      12.21500000        3       0.00000000        0              nan              nan              nan 
Li      6.98000000      10.47000000      13.96000000        3       0.00000000        0              nan              nan              nan 
Li      6.98000000      13.96000000       3.49000000        3       0.00000000        0              nan              nan              nan 
Li      6.98000000      13.96000000       6.98000000        3       0.00000000        0              nan              nan              nan 
Li      6.98000000      13.96000000      10.47000000        3       0.00000000        0              nan              nan              nan 
Li     12.21500000       1.74500000       5.23500000        3       0.00000000        0              nan              nan              nan 
Li     10.47000000       0.00000000       6.98000000        3       0.00000000        0              nan              nan              nan 
Li     12.21500000       1.74500000       8.72500000        3       0.00000000        0              nan              nan              nan 
Li     12.21500000       5.23500000       1.74500000        3       0.00000000        0              nan              nan              nan 
Li     10.47000000       3.49000000       3.49000000        3       0.00000000        0              nan              nan              nan 
Li     12.21500000       5.23500000       5.23500000        3       0.00000000        0              nan              nan              nan 
Li     10.47000000       3.49000000       6.98000000        3       0.00000000        0              nan              nan              nan 
Li     12.21500000       5.23500000       8.72500000        3       0.00000000        0              nan              nan              nan 
Li     10.47000000       3.49000000      10.47000000        3       0.00000000        0              nan              nan              nan 
Li     12.21500000       5.23500000      12.21500000        3       0.00000000        0              nan              nan              nan 
Li     10.47000000       6.98000000       0.00000000        3       0.00000000        0              nan              nan              nan 
Li     12.21500000       8.72500000       1.74500000        3       0.00000000        0              nan              nan              nan 
Li     10.47000000       6.98000000       3.49000000        3       0.00000000        0              nan              nan              nan 
Li     12.21500000       8.72500000       5.23500000        3       0.00000000        0              nan              nan              nan 
Li     10.47000000       6.98000000       6.98000000        3       0.00000000        0              nan              nan              nan 
Li     12.21500000       8.72500000       8.72500000        3       0.00000000        0              nan              nan              nan 
Li     10.47000000       6.98000000      10.47000000        3       0.00000000        0              nan              nan              nan 
Li     12.21500000       8.72500000      12.21500000        3       0.00000000        0              nan              nan              nan 
Li     10.47000000       6.98000000      13.96000000        3       0.00000000        0              nan              nan              nan 
Li     10.47000000      10.47000000       3.49000000        3       0.00000000        0              nan              nan              nan 
Li     12.21500000      12.21500000       5.23500000        3       0.00000000        0              nan              nan              nan 
Li     10.47000000      10.47000000       6.98000000        3       0.00000000        0              nan              nan              nan 
Li     12.21500000      12.21500000       8.72500000        3       0.00000000        0              nan              nan              nan 
Li     10.47000000      10.47000000      10.47000000        3       0.00000000        0              nan              nan              nan 
Li     10.47000000      13.96000000       6.98000000        3       0.00000000        0              nan              nan              nan 
Li     13.96000000       3.49000000       6.98000000        3       0.00000000        0              nan              nan              nan 
Li     13.96000000       6.98000000       3.49000000        3       0.00000000        0              nan              nan              nan 
Li     13.96000000       6.98000000       6.98000000        3       0.00000000        0              nan              nan              nan 
Li     13.96000000       6.98000000      10.47000000        3       0.00000000        0              nan              nan              nan 
Li     13.96000000      10.47000000       6.98000000        3       0.00000000        0              nan              nan              nan 
