143
Lattice="20.94 0.0 0.0 0.0 20.94 0.0 0.0 0.0 20.94" Properties=species:S:1:pos:R:3:Z:I:1:magmoms:R:1:tags:I:1:forces:R:3 energy=nan pbc="F F F"
Li      1.74500000       8.72500000       8.72500000        3       0.00000000        0              nan              nan              nan 
Li      1.74500000       8.72500000      12.21500000        3       0.00000000        0              nan              nan              nan 
Li      1.74500000      12.21500000       8.72500000        3       0.00000000        0              nan              nan              nan 
Li      0.00000000      10.47000000      10.47000000        3       0.00000000        0              nan              nan              nan 
Li      1.74500000      12.21500000      12.21500000        3       0.00000000        0              nan              nan              nan 
Li      5.23500000       5.23500000       8.72500000        3       0.00000000        0              nan              nan              nan 
Li      5.23500000       5.23500000      12.21500000        3       0.00000000        0              nan              nan              nan 
Li      5.23500000       8.72500000       5.23500000        3       0.00000000        0              nan              nan              nan 
Li      5.23500000       8.72500000       8.72500000        3       0.00000000        0              nan              nan              nan 
Li      3.49000000       6.98000000      10.47000000        3       0.00000000        0              nan              nan              nan 
Li      5.23500000       8.72500000      12.21500000        3       0.00000000        0              nan              nan              nan 
Li      5.23500000       8.72500000      15.70500000        3       0.00000000        0              nan              nan              nan 
Li      5.23500000      12.21500000       5.23500000        3       0.00000000        0              nan              nan              nan 
Li      3.49000000      10.47000000       6.98000000        3       0.00000000        0              nan              nan              nan 
Li      5.23500000      12.21500000       8.72500000        3       0.00000000        0              nan              nan              nan 
Li      3.49000000      10.47000000      10.47000000        3       0.00000000        0              nan              nan              nan 
Li      5.23500000      12.21500000      12.21500000        3       0.00000000        0              nan              nan              nan 
Li      3.49000000      10.47000000      13.96000000        3       0.00000000        0              nan              nan              nan 
Li      5.23500000      12.21500000      15.70500000        3       0.00000000        0              nan              nan              nan 
Li      5.23500000      15.70500000       8.72500000        3       0.00000000        0              nan              nan              nan 
Li      3.49000000      13.96000000      10.47000000        3       0.00000000        0              nan              nan              nan 
Li      5.23500000      15.70500000      12.21500000        3       0.00000000        0              nan              nan              nan 
Li      8.72500000       1.74500000       8.72500000        3       0.00000000        0              nan              nan              nan 
Li      8.72500000       1.74500000      12.21500000        3       0.00000000        0              nan              nan              nan 
Li      8.72500000       5.23500000       5.23500000        3       0.00000000        0              nan              nan              nan 
Li      8.72500000       5.23500000       8.72500000        3       0.00000000        0              nan              nan              nan 
Li      6.98000000       3.49000000      10.47000000        3       0.00000000        0              nan              nan              nan 
Li      8.72500000       5.23500000      12.21500000        3       0.00000000        0              nan              nan              nan 
Li      8.72500000       5.23500000      15.70500000        3       0.00000000        0              nan              nan              nan 
Li      8.72500000       8.72500000       1.74500000        3       0.00000000        0              nan              nan              nan 
Li      8.72500000       8.72500000       5.23500000        3       0.00000000        0              nan              nan              nan 
Li      6.98000000       6.98000000       6.98000000        3       0.00000000        0              nan              nan              nan 
Li      8.72500000       8.72500000       8.72500000        3       0.00000000        0              nan              nan              nan 
Li      6.98000000       6.98000000      10.47000000        3       0.00000000        0              nan              nan              nan 
Li      8.72500000       8.72500000      12.21500000        3       0.00000000        0              nan              nan              nan 
Li      6.98000000       6.98000000      13.96000000        3       0.00000000        0              nan              nan              nan 
Li      8.72500000       8.72500000      15.70500000        3       0.00000000        0              nan              nan              nan 
Li      8.72500000       8.72500000      19.19500000        3       0.00000000        0              nan              nan              nan 
Li      8.72500000      12.21500000       1.74500000        3       0.00000000        0              nan              nan              nan 
Li      6.98000000      10.47000000       3.49000000        3       0.00000000        0              nan              nan              nan 
Li      8.72500000      12.21500000       5.23500000        3       0.00000000        0              nan              nan              nan 
Li      6.98000000      10.47000000       6.98000000        3       0.00000000        0              nan              nan              nan 
Li      8.72500000      12.21500000       8.72500000        3       0.00000000        0              nan              nan              nan 
Li      6.98000000      10.47000000      10.47000000        3       0.00000000        0              nan              nan              nan 
Li      8.72500000      12.21500000      12.21500000        3       0.00000000        0              nan              nan              nan 
Li      6.98000000      10.47000000      13.96000000        3       0.00000000        0              nan              nan              nan 
Li      8.72500000      12.21500000      15.70500000        3       0.00000000        0              nan              nan              nan 
Li      6.98000000      10.47000000      17.45000000        3       0.00000000        0              nan              nan              nan 
Li      8.72500000      12.21500000      19.19500000        3       0.00000000        0              nan              nan              nan 
Li      8.72500000      15.70500000       5.23500000        3       0.00000000        0              nan              nan              nan 
Li      6.98000000      13.96000000       6.98000000        3       0.00000000        0              nan              nan              nan 
Li      8.72500000      15.70500000       8.72500000        3       0.00000000        0              nan              nan              nan 
Li      6.98000000      13.96000000      10.47000000        3       0.00000000        0              nan              nan              nan 
Li      8.72500000      15.70500000      12.21500000        3       0.00000000        0              nan              nan              nan 
Li      6.98000000      13.96000000      13.96000000        3       0.00000000        0              nan              nan              nan 
Li      8.72500000      15.70500000      15.70500000        3       0.00000000        0              nan              nan              nan 
Li      8.72500000      19.19500000       8.72500000        3       0.00000000        0              nan              nan              nan 
Li      6.98000000      17.45000000      10.47000000        3       0.00000000        0              nan              nan              nan 
Li      8.72500000      19.19500000      12.21500000        3       0.00000000        0              nan              nan              nan 
Li     12.21500000       1.74500000       8.72500000        3       0.00000000        0              nan              nan              nan 
Li     10.47000000       0.00000000      10.47000000        3       0.00000000        0              nan              nan              nan 
Li     12.21500000       1.74500000      12.21500000        3       0.00000000        0              nan              nan              nan 
Li     12.21500000       5.23500000       5.23500000        3       0.00000000        0              nan              nan              nan 
Li     10.47000000       3.49000000       6.98000000        3       0.00000000        0              nan              nan              nan 
Li     12.21500000       5.23500000       8.72500000        3       0.00000000        0              nan              nan              nan 
Li     10.47000000       3.49000000      10.47000000        3       0.00000000        0              nan              nan              nan 
Li     12.21500000       5.23500000      12.21500000        3       0.00000000        0              nan              nan              nan 
Li     10.47000000       3.49000000      13.96000000        3       0.00000000        0              nan              nan              nan 
Li     12.21500000       5.23500000      15.70500000        3       0.00000000        0              nan              nan              nan 
Li     12.21500000       8.72500000       1.74500000        3       0.00000000        0              nan              nan              nan 
Li     10.47000000       6.98000000       3.49000000        3       0.00000000        0              nan              nan              nan 
Li     12.21500000       8.72500000       5.23500000        3       0.00000000        0              nan              nan              nan 
Li     10.47000000       6.98000000       6.98000000        3       0.00000000        0              nan              nan              nan 
Li     12.21500000       8.72500000       8.72500000        3       0.00000000        0              nan              nan              nan 
Li     10.47000000       6.98000000      10.47000000        3       0.00000000        0              nan              nan              nan 
Li     12.21500000       8.72500000      12.21500000        3       0.00000000        0              nan              nan              nan 
Li     10.47000000       6.98000000      13.96000000        3       0.00000000        0              nan              nan              nan 
Li     12.21500000       8.72500000      15.70500000        3       0.00000000        0              nan              nan              nan 
Li     10.47000000       6.98000000      17.45000000        3       0.00000000        0              nan              nan              nan 
Li     12.21500000       8.72500000      19.19500000        3       0.00000000        0              nan              nan              nan 
Li     10.47000000      10.47000000       0.00000000        3       0.00000000        0              nan              nan              nan 
Li     12.21500000      12.21500000       1.74500000        3       0.00000000        0              nan              nan              nan 
Li     10.47000000      10.47000000       3.49000000        3       0.00000000        0              nan              nan              nan 
Li     12.21500000      12.21500000       5.23500000        3       0.00000000        0              nan              nan              nan 
Li     10.47000000      10.47000000       6.98000000        3       0.00000000        0              nan              nan              nan 
Li     12.21500000      12.21500000       8.72500000        3       0.00000000        0              nan              nan              nan 
Li     10.47000000      10.47000000      10.47000000        3       0.00000000        0              nan              nan              nan 
Li     12.21500000      12.21500000      12.21500000        3       0.00000000        0              nan              nan              nan 
Li     10.47000000      10.47000000      13.96000000        3       0.00000000        0              nan              nan              nan 
Li     12.21500000      12.21500000      15.70500000        3       0.00000000        0              nan              nan              nan 
Li     10.47000000      10.47000000      17.45000000        3       0.00000000        0              nan              nan              nan 
Li     12.21500000      12.21500000      19.19500000        3       0.00000000        0              nan              nan              nan 
Li     10.47000000      10.47000000      20.94000000        3       0.00000000        0              nan              nan              nan 
Li     10.47000000      13.96000000       3.49000000        3       0.00000000        0              nan              nan              nan 
Li     12.21500000      15.70500000       5.23500000        3       0.00000000        0              nan              nan              nan 
Li     10.47000000      13.96000000       6.98000000        3       0.00000000        0              nan              nan              nan 
Li     12.21500000      15.70500000       8.72500000        3       0.00000000        0              nan              nan              nan 
Li     10.47000000      13.96000000      10.47000000        3       0.00000000        0              nan              nan              nan 
Li     12.21500000      15.70500000      12.21500000        3       0.00000000        0              nan              nan              nan 
Li     10.47000000      13.96000000      13.96000000        3       0.00000000        0              nan              nan              nan 
Li     12.21500000      15.70500000      15.70500000        3       0.00000000        0              nan              nan              nan 
Li     10.47000000      13.96000000      17.45000000        3       0.00000000        0              nan              nan              nan 
Li     10.47000000      17.45000000       6.98000000        3       0.00000000        0              nan              nan              nan 
Li     12.21500000      19.19500000       8.72500000        3       0.00000000        0              nan              nan              nan 
Li     10.47000000      17.45000000      10.47000000        3       0.00000000        0              nan              nan              nan 
Li     12.21500000      19.19500000      12.21500000        3       0.00000000        0              nan              nan              nan 
Li     10.47000000      17.45000000      13.96000000        3       0.00000000        0              nan              nan              nan 
Li     10.47000000      20.94000000      10.47000000        3       0.00000000        0              nan              nan              nan 
Li     15.70500000       5.23500000       8.72500000        3       0.00000000        0              nan              nan              nan 
Li     13.96000000       3.49000000      10.47000000        3       0.00000000        0              nan              nan              nan 
Li     15.70500000       5.23500000      12.21500000        3       0.00000000        0              nan              nan              nan 
Li     15.70500000       8.72500000       5.23500000        3       0.00000000        0              nan              nan              nan 
Li     13.96000000       6.98000000       6.98000000        3       0.00000000        0              nan              nan              nan 
Li     15.70500000       8.72500000       8.72500000        3       0.00000000        0              nan              nan              nan 
Li     13.96000000       6.98000000      10.47000000        3       0.00000000        0              nan              nan              nan 
Li     15.70500000       8.72500000      12.21500000        3       0.00000000        0              nan              nan              nan 
Li     13.96000000       6.98000000      13.96000000        3       0.00000000        0              nan              nan              nan 
Li     15.70500000       8.72500000      15.70500000        3       0.00000000        0              nan              nan              nan 
Li     13.96000000      10.47000000       3.49000000        3       0.00000000        0              nan              nan              nan 
Li     15.70500000      12.21500000       5.23500000        3       0.00000000        0              nan              nan              nan 
Li     13.96000000      10.47000000       6.98000000        3       0.00000000        0              nan              nan              nan 
Li     15.70500000      12.21500000       8.72500000        3       0.00000000        0              nan              nan              nan 
Li     13.96000000      10.47000000      10.47000000        3       0.00000000        0              nan              nan              nan 
Li     15.70500000      12.21500000      12.21500000        3       0.00000000        0              nan              nan              nan 
Li     13.96000000      10.47000000      13.96000000        3       0.00000000        0              nan              nan              nan 
Li     15.70500000      12.21500000      15.70500000        3       0.00000000        0              nan              nan              nan 
Li     13.96000000      10.47000000      17.45000000        3       0.00000000        0              nan              nan              nan 
Li     13.96000000      13.96000000       6.98000000        3       0.00000000        0              nan              nan              nan 
Li     15.70500000      15.70500000       8.72500000        3       0.00000000        0              nan              nan              nan 
Li     13.96000000      13.96000000      10.47000000        3       0.00000000        0              nan              nan              nan 
Li     15.70500000      15.70500000      12.21500000        3       0.00000000        0              nan              nan              nan 
Li     13.96000000      13.96000000      13.96000000        3       0.00000000        0              nan              nan              nan 
Li     13.96000000      17.45000000      10.47000000        3       0.00000000        0              nan              nan              nan 
Li     19.19500000       8.72500000       8.72500000        3       0.00000000        0              nan              nan              nan 
Li     17.45000000       6.98000000      10.47000000        3       0.00000000        0              nan              nan              nan 
Li     19.19500000       8.72500000      12.21500000        3       0.00000000        0              nan              nan              nan 
Li     17.45000000      10.47000000       6.98000000        3       0.00000000        0              nan              nan              nan 
Li     19.19500000      12.21500000       8.72500000        3       0.00000000        0              nan              nan              nan 
Li     17.45000000      10.47000000      10.47000000        3       0.00000000        0              nan              nan              nan 
Li     19.19500000      12.21500000      12.21500000        3       0.00000000        0              nan              nan              nan 
Li     17.45000000      10.47000000      13.96000000        3       0.00000000        0              nan              nan              nan 
Li     17.45000000      13.96000000      10.47000000        3       0.00000000        0              nan              nan              nan 
Li     20.94000000      10.47000000      10.47000000        3       0.00000000        0              nan              nan              nan 
