135
Lattice="9.0 0.0 0.0 0.0 9.0 0.0 0.0 0.0 9.0" Properties=species:S:1:pos:R:3:Z:I:1:magmoms:R:1:tags:I:1:forces:R:3 energy=nan pbc="F F F"
Li      0.00000000       1.50000000       3.00000000        3       0.00000000        0              nan              nan              nan 
Li      0.00000000       3.00000000       1.50000000        3       0.00000000        0              nan              nan              nan 
Li      0.00000000       1.50000000       6.00000000        3       0.00000000        0              nan              nan              nan 
Li      0.00000000       3.00000000       4.50000000        3       0.00000000        0              nan              nan              nan 
Li      0.00000000       3.00000000       7.50000000        3       0.00000000        0              nan              nan              nan 
Li      0.00000000       4.50000000       3.00000000        3       0.00000000        0              nan              nan              nan 
Li      0.00000000       6.00000000       1.50000000        3       0.00000000        0              nan              nan              nan 
Li      0.00000000       4.50000000       6.00000000        3       0.00000000        0              nan              nan              nan 
Li      0.00000000       6.00000000       4.50000000        3       0.00000000        0              nan              nan              nan 
Li      0.00000000       6.00000000       7.50000000        3       0.00000000        0              nan              nan              nan 
Li      0.00000000       7.50000000       3.00000000        3       0.00000000        0              nan              nan              nan 
Li      0.00000000       7.50000000       6.00000000        3       0.00000000        0              nan              nan              nan 
Li      1.50000000       0.00000000       3.00000000        3       0.00000000        0              nan              nan              nan 
Li      3.00000000       0.00000000       1.50000000        3       0.00000000        0              nan              nan              nan 
Li      1.50000000       0.00000000       6.00000000        3       0.00000000        0              nan              nan              nan 
Li      3.00000000       0.00000000       4.50000000        3       0.00000000        0              nan              nan              nan 
Li      3.00000000       0.00000000       7.50000000        3       0.00000000        0              nan              nan              nan 
Li      1.50000000       3.00000000       0.00000000        3       0.00000000        0              nan              nan              nan 
Li      3.00000000       1.50000000       0.00000000        3       0.00000000        0              nan              nan              nan 
Li      1.50000000       1.50000000       1.50000000        3       0.00000000        0              nan              nan              nan 
Li      1.50000000       3.00000000       3.00000000        3       0.00000000        0              nan              nan              nan 
Li      3.00000000       1.50000000       3.00000000        3       0.00000000        0              nan              nan              nan 
Li      3.00000000       3.00000000       1.50000000        3       0.00000000        0              nan              nan              nan 
Li      1.50000000       1.50000000       4.50000000        3       0.00000000        0              nan              nan              nan 
Li      1.50000000       3.00000000       6.00000000        3       0.00000000        0              nan              nan              nan 
Li      3.00000000       1.50000000       6.00000000        3       0.00000000        0              nan              nan              nan 
Li      3.00000000       3.00000000       4.50000000        3       0.00000000        0              nan              nan              nan 
Li      1.50000000       1.50000000       7.50000000        3       0.00000000        0              nan              nan              nan 
Li      1.50000000       3.00000000       9.00000000        3       0.00000000        0              nan              nan              nan 
Li      3.00000000       1.50000000       9.00000000        3       0.00000000        0              nan              nan              nan 
Li      3.00000000       3.00000000       7.50000000        3       0.00000000        0              nan              nan              nan 
Li      1.50000000       6.00000000       0.00000000        3       0.00000000        0              nan              nan              nan 
Li      3.00000000       4.50000000       0.00000000        3       0.00000000        0              nan              nan              nan 
Li      1.50000000       4.50000000       1.50000000        3       0.00000000        0              nan              nan              nan 
Li      1.50000000       6.00000000       3.00000000        3       0.00000000        0              nan              nan              nan 
Li      3.00000000       4.50000000       3.00000000        3       0.00000000        0              nan              nan              nan 
Li      3.00000000       6.00000000       1.50000000        3       0.00000000        0              nan              nan              nan 
Li      1.50000000       4.50000000       4.50000000        3       0.00000000        0              nan              nan              nan 
Li      1.50000000       6.00000000       6.00000000        3       0.00000000        0              nan              nan              nan 
Li      3.00000000       4.50000000       6.00000000        3       0.00000000        0              nan              nan              nan 
Li      3.00000000       6.00000000       4.50000000        3       0.00000000        0              nan              nan              nan 
Li      1.50000000       4.50000000       7.50000000        3       0.00000000        0              nan              nan              nan 
Li      1.50000000       6.00000000       9.00000000        3       0.00000000        0              nan              nan              nan 
Li      3.00000000       4.50000000       9.00000000        3       0.00000000        0              nan              nan              nan 
Li      3.00000000       6.00000000       7.50000000        3       0.00000000        0              nan              nan              nan 
Li      3.00000000       7.50000000       0.00000000        3       0.00000000        0              nan              nan              nan 
Li      1.50000000       7.50000000       1.50000000        3       0.00000000        0              nan              nan              nan 
Li      1.50000000       9.00000000       3.00000000        3       0.00000000        0              nan              nan              nan 
Li      3.00000000       7.50000000       3.00000000        3       0.00000000        0              nan              nan              nan 
Li      3.00000000       9.00000000       1.50000000        3       0.00000000        0              nan              nan              nan 
Li      1.50000000       7.50000000       4.50000000        3       0.00000000        0              nan              nan              nan 
Li      1.50000000       9.00000000       6.00000000        3       0.00000000        0              nan              nan              nan 
Li      3.00000000       7.50000000       6.00000000        3       0.00000000        0              nan              nan              nan 
Li      3.00000000       9.00000000       4.50000000        3       0.00000000        0              nan              nan              nan 
Li      1.50000000       7.50000000       7.50000000        3       0.00000000        0              nan              nan              nan 
Li      3.00000000       7.50000000       9.00000000        3       0.00000000        0              nan              nan              nan 
Li      3.00000000       9.00000000       7.50000000        3       0.00000000        0              nan              nan              nan 
Li      4.50000000       0.00000000       3.00000000        3       0.00000000        0              nan              nan              nan 
Li      6.00000000       0.00000000       1.50000000        3       0.00000000        0              nan              nan              nan 
Li      4.50000000       0.00000000       6.00000000        3       0.00000000        0              nan              nan              nan 
Li      6.00000000       0.00000000       4.50000000        3       0.00000000        0              nan              nan              nan 
Li      6.00000000       0.00000000       7.50000000        3       0.00000000        0              nan              nan              nan 
Li      4.50000000       3.00000000       0.00000000        3       0.00000000        0              nan              nan              nan 
Li      6.00000000       1.50000000       0.00000000        3       0.00000000        0              nan              nan              nan 
Li      4.50000000       1.50000000       1.50000000        3       0.00000000        0              nan              nan              nan 
Li      4.50000000       3.00000000       3.00000000        3       0.00000000        0              nan              nan              nan 
Li      6.00000000       1.50000000       3.00000000        3       0.00000000        0              nan              nan              nan 
Li      6.00000000       3.00000000       1.50000000        3       0.00000000        0              nan              nan              nan 
Li      4.50000000       1.50000000       4.50000000        3       0.00000000        0              nan              nan              nan 
Li      4.50000000       3.00000000       6.00000000        3       0.00000000        0              nan              nan              nan 
Li      6.00000000       1.50000000       6.00000000        3       0.00000000        0              nan              nan              nan 
Li      6.00000000       3.00000000       4.50000000        3       0.00000000        0              nan              nan              nan 
Li      4.50000000       1.50000000       7.50000000        3       0.00000000        0              nan              nan              nan 
Li      4.50000000       3.00000000       9.00000000        3       0.00000000        0              nan              nan              nan 
Li      6.00000000       1.50000000       9.00000000        3       0.00000000        0              nan              nan              nan 
Li      6.00000000       3.00000000       7.50000000        3       0.00000000        0              nan              nan              nan 
Li      4.50000000       6.00000000       0.00000000        3       0.00000000        0              nan              nan              nan 
Li      6.00000000       4.50000000       0.00000000        3       0.00000000        0              nan              nan              nan 
Li      4.50000000       4.50000000       1.50000000        3       0.00000000        0              nan              nan              nan 
Li      4.50000000       6.00000000       3.00000000        3       0.00000000        0              nan              nan              nan 
Li      6.00000000       4.50000000       3.00000000        3       0.00000000        0              nan              nan              nan 
Li      6.00000000       6.00000000       1.50000000        3       0.00000000        0              nan              nan              nan 
Li      4.50000000       4.50000000       4.50000000        3       0.00000000        0              nan              nan              nan 
Li      4.50000000       6.00000000       6.00000000        3       0.00000000        0              nan              nan              nan 
Li      6.00000000       4.50000000       6.00000000        3       0.00000000        0              nan              nan              nan 
Li      6.00000000       6.00000000       4.50000000        3       0.00000000        0              nan              nan              nan 
Li      4.50000000       4.50000000       7.50000000        3       0.00000000        0              nan              nan              nan 
Li      4.50000000       6.00000000       9.00000000        3       0.00000000        0              nan              nan              nan 
Li      6.00000000       4.50000000       9.00000000        3       0.00000000        0              nan              nan              nan 
Li      6.00000000       6.00000000       7.50000000        3       0.00000000        0              nan              nan              nan 
Li      6.00000000       7.50000000       0.00000000        3       0.00000000        0              nan              nan              nan 
Li      4.50000000       7.50000000       1.50000000        3       0.00000000        0              nan              nan              nan 
Li      4.50000000       9.00000000       3.00000000        3       0.00000000        0              nan              nan              nan 
Li      6.00000000       7.50000000       3.00000000        3       0.00000000        0              nan              nan              nan 
Li      6.00000000       9.00000000       1.50000000        3       0.00000000        0              nan              nan              nan 
Li      4.50000000       7.50000000       4.50000000        3       0.00000000        0              nan              nan              nan 
Li      4.50000000       9.00000000       6.00000000        3       0.00000000        0              nan              nan              nan 
Li      6.00000000       7.50000000       6.00000000        3       0.00000000        0              nan              nan              nan 
Li      6.00000000       9.00000000       4.50000000        3       0.00000000        0              nan              nan              nan 
Li      4.50000000       7.50000000       7.50000000        3       0.00000000        0              nan              nan              nan 
Li      6.00000000       7.50000000       9.00000000        3       0.00000000        0              nan              nan              nan 
Li      6.00000000       9.00000000       7.50000000        3       0.00000000        0              nan              nan              nan 
Li      7.50000000       0.00000000       3.00000000        3       0.00000000        0              nan              nan              nan 
Li      7.50000000       0.00000000       6.00000000        3       0.00000000        0              nan              nan              nan 
Li      7.50000000       3.00000000       0.00000000        3       0.00000000        0              nan              nan              nan 
Li      7.50000000       1.50000000       1.50000000        3       0.00000000        0              nan              nan              nan 
Li      7.50000000       3.00000000       3.00000000        3       0.00000000        0              nan              nan              nan 
Li      9.00000000       1.50000000       3.00000000        3       0.00000000        0              nan              nan              nan 
Li      9.00000000       3.00000000       1.50000000        3       0.00000000        0              nan              nan              nan 
Li      7.50000000       1.50000000       4.50000000        3       0.00000000        0              nan              nan              nan 
Li      7.50000000       3.00000000       6.00000000        3       0.00000000        0              nan              nan              nan 
Li      9.00000000       1.50000000       6.00000000        3       0.00000000        0              nan              nan              nan 
Li      9.00000000       3.00000000       4.50000000        3       0.00000000        0              nan              nan              nan 
Li      7.50000000       1.50000000       7.50000000        3       0.00000000        0              nan              nan              nan 
Li      7.50000000       3.00000000       9.00000000        3       0.00000000        0              nan              nan              nan 
Li      9.00000000       3.00000000       7.50000000        3       0.00000000        0              nan              nan              nan 
Li      7.50000000       6.00000000       0.00000000        3       0.00000000        0              nan              nan              nan 
Li      7.50000000       4.50000000       1.50000000        3       0.00000000        0              nan              nan              nan 
Li      7.50000000       6.00000000       3.00000000        3       0.00000000        0              nan              nan              nan 
Li      9.00000000       4.50000000       3.00000000        3       0.00000000        0              nan              nan              nan 
Li      9.00000000       6.00000000       1.50000000        3       0.00000000        0              nan              nan              nan 
Li      7.50000000       4.50000000       4.50000000        3       0.00000000        0              nan              nan              nan 
Li      7.50000000       6.00000000       6.00000000        3       0.00000000        0              nan              nan              nan 
Li      9.00000000       4.50000000       6.00000000        3       0.00000000        0              nan              nan              nan 
Li      9.00000000       6.00000000       4.50000000        3       0.00000000        0              nan              nan              nan 
Li      7.50000000       4.50000000       7.50000000        3       0.00000000        0              nan              nan              nan 
Li      7.50000000       6.00000000       9.00000000        3       0.00000000        0              nan              nan              nan 
Li      9.00000000       6.00000000       7.50000000        3       0.00000000        0              nan              nan              nan 
Li      7.50000000       7.50000000       1.50000000        3       0.00000000        0              nan              nan              nan 
Li      7.50000000       9.00000000       3.00000000        3       0.00000000        0              nan              nan              nan 
Li      9.00000000       7.50000000       3.00000000        3       0.00000000        0              nan              nan              nan 
Li      7.50000000       7.50000000       4.50000000        3       0.00000000        0              nan              nan              nan 
Li      7.50000000       9.00000000       6.00000000        3       0.00000000        0              nan              nan              nan 
Li      9.00000000       7.50000000       6.00000000        3       0.00000000        0              nan              nan              nan 
Li      7.50000000       7.50000000       7.50000000        3       0.00000000        0              nan              nan              nan 
