135
Lattice="15.8753163169 0.0 0.0 0.0 15.8753163169 0.0 0.0 0.0 15.8753163169" Properties=species:S:1:pos:R:3:Z:I:1:tags:I:1:magmoms:R:1:forces:R:3 energy=nan pbc="T T T"
Li     -4.50000000      -3.00000000      -1.50000000        3        0       0.00000000              nan              nan              nan 
Li     -4.50000000      -1.50000000      -3.00000000        3        0       0.00000000              nan              nan              nan 
Li     -4.50000000      -3.00000000       1.50000000        3        0       0.00000000              nan              nan              nan 
Li     -4.50000000      -1.50000000       0.00000000        3        0       0.00000000              nan              nan              nan 
Li     -4.50000000      -1.50000000       3.00000000        3        0       0.00000000              nan              nan              nan 
Li     -4.50000000       0.00000000      -1.50000000        3        0       0.00000000              nan              nan              nan 
Li     -4.50000000       1.50000000      -3.00000000        3        0       0.00000000              nan              nan              nan 
Li     -4.50000000       0.00000000       1.50000000        3        0       0.00000000              nan              nan              nan 
Li     -4.50000000       1.50000000       0.00000000        3        0       0.00000000              nan              nan              nan 
Li     -4.50000000       1.50000000       3.00000000        3        0       0.00000000              nan              nan              nan 
Li     -4.50000000       3.00000000      -1.50000000        3        0       0.00000000              nan              nan              nan 
Li     -4.50000000       3.00000000       1.50000000        3        0       0.00000000              nan              nan              nan 
Li     -3.00000000      -4.50000000      -1.50000000        3        0       0.00000000              nan              nan              nan 
Li     -1.50000000      -4.50000000      -3.00000000        3        0       0.00000000              nan              nan              nan 
Li     -3.00000000      -4.50000000       1.50000000        3        0       0.00000000              nan              nan              nan 
Li     -1.50000000      -4.50000000       0.00000000        3        0       0.00000000              nan              nan              nan 
Li     -1.50000000      -4.50000000       3.00000000        3        0       0.00000000              nan              nan              nan 
Li     -3.00000000      -1.50000000      -4.50000000        3        0       0.00000000              nan              nan              nan 
Li     -1.50000000      -3.00000000      -4.50000000        3        0       0.00000000              nan              nan              nan 
Li     -3.00000000      -3.00000000      -3.00000000        3        0       0.00000000              nan              nan              nan 
Li     -3.00000000      -1.50000000      -1.50000000        3        0       0.00000000              nan              nan              nan 
Li     -1.50000000      -3.00000000      -1.50000000        3        0       0.00000000              nan              nan              nan 
Li     -1.50000000      -1.50000000      -3.00000000        3        0       0.00000000              nan              nan              nan 
Li     -3.00000000      -3.00000000       0.00000000        3        0       0.00000000              nan              nan              nan 
Li     -3.00000000      -1.50000000       1.50000000        3        0       0.00000000              nan              nan              nan 
Li     -1.50000000      -3.00000000       1.50000000        3        0       0.00000000              nan              nan              nan 
Li     -1.50000000      -1.50000000       0.00000000        3        0       0.00000000              nan              nan              nan 
Li     -3.00000000      -3.00000000       3.00000000        3        0       0.00000000              nan              nan              nan 
Li     -3.00000000      -1.50000000       4.50000000        3        0       0.00000000              nan              nan              nan 
Li     -1.50000000      -3.00000000       4.50000000        3        0       0.00000000              nan              nan              nan 
Li     -1.50000000      -1.50000000       3.00000000        3        0       0.00000000              nan              nan              nan 
Li     -3.00000000       1.50000000      -4.50000000        3        0       0.00000000              nan              nan              nan 
Li     -1.50000000       0.00000000      -4.50000000        3        0       0.00000000              nan              nan              nan 
Li     -3.00000000       0.00000000      -3.00000000        3        0       0.00000000              nan              nan              nan 
Li     -3.00000000       1.50000000      -1.50000000        3        0       0.00000000              nan              nan              nan 
Li     -1.50000000       0.00000000      -1.50000000        3        0       0.00000000              nan              nan              nan 
Li     -1.50000000       1.50000000      -3.00000000        3        0       0.00000000              nan              nan              nan 
Li     -3.00000000       0.00000000       0.00000000        3        0       0.00000000              nan              nan              nan 
Li     -3.00000000       1.50000000       1.50000000        3        0       0.00000000              nan              nan              nan 
Li     -1.50000000       0.00000000       1.50000000        3        0       0.00000000              nan              nan              nan 
Li     -1.50000000       1.50000000       0.00000000        3        0       0.00000000              nan              nan              nan 
Li     -3.00000000       0.00000000       3.00000000        3        0       0.00000000              nan              nan              nan 
Li     -3.00000000       1.50000000       4.50000000        3        0       0.00000000              nan              nan              nan 
Li     -1.50000000       0.00000000       4.50000000        3        0       0.00000000              nan              nan              nan 
Li     -1.50000000       1.50000000       3.00000000        3        0       0.00000000              nan              nan              nan 
Li     -1.50000000       3.00000000      -4.50000000        3        0       0.00000000              nan              nan              nan 
Li     -3.00000000       3.00000000      -3.00000000        3        0       0.00000000              nan              nan              nan 
Li     -3.00000000       4.50000000      -1.50000000        3        0       0.00000000              nan              nan              nan 
Li     -1.50000000       3.00000000      -1.50000000        3        0       0.00000000              nan              nan              nan 
Li     -1.50000000       4.50000000      -3.00000000        3        0       0.00000000              nan              nan              nan 
Li     -3.00000000       3.00000000       0.00000000        3        0       0.00000000              nan              nan              nan 
Li     -3.00000000       4.50000000       1.50000000        3        0       0.00000000              nan              nan              nan 
Li     -1.50000000       3.00000000       1.50000000        3        0       0.00000000              nan              nan              nan 
Li     -1.50000000       4.50000000       0.00000000        3        0       0.00000000              nan              nan              nan 
Li     -3.00000000       3.00000000       3.00000000        3        0       0.00000000              nan              nan              nan 
Li     -1.50000000       3.00000000       4.50000000        3        0       0.00000000              nan              nan              nan 
Li     -1.50000000       4.50000000       3.00000000        3        0       0.00000000              nan              nan              nan 
Li      0.00000000      -4.50000000      -1.50000000        3        0       0.00000000              nan              nan              nan 
Li      1.50000000      -4.50000000      -3.00000000        3        0       0.00000000              nan              nan              nan 
Li      0.00000000      -4.50000000       1.50000000        3        0       0.00000000              nan              nan              nan 
Li      1.50000000      -4.50000000       0.00000000        3        0       0.00000000              nan              nan              nan 
Li      1.50000000      -4.50000000       3.00000000        3        0       0.00000000              nan              nan              nan 
Li      0.00000000      -1.50000000      -4.50000000        3        0       0.00000000              nan              nan              nan 
Li      1.50000000      -3.00000000      -4.50000000        3        0       0.00000000              nan              nan              nan 
Li      0.00000000      -3.00000000      -3.00000000        3        0       0.00000000              nan              nan              nan 
Li      0.00000000      -1.50000000      -1.50000000        3        0       0.00000000              nan              nan              nan 
Li      1.50000000      -3.00000000      -1.50000000        3        0       0.00000000              nan              nan              nan 
Li      1.50000000      -1.50000000      -3.00000000        3        0       0.00000000              nan              nan              nan 
Li      0.00000000      -3.00000000       0.00000000        3        0       0.00000000              nan              nan              nan 
Li      0.00000000      -1.50000000       1.50000000        3        0       0.00000000              nan              nan              nan 
Li      1.50000000      -3.00000000       1.50000000        3        0       0.00000000              nan              nan              nan 
Li      1.50000000      -1.50000000       0.00000000        3        0       0.00000000              nan              nan              nan 
Li      0.00000000      -3.00000000       3.00000000        3        0       0.00000000              nan              nan              nan 
Li      0.00000000      -1.50000000       4.50000000        3        0       0.00000000              nan              nan              nan 
Li      1.50000000      -3.00000000       4.50000000        3        0       0.00000000              nan              nan              nan 
Li      1.50000000      -1.50000000       3.00000000        3        0       0.00000000              nan              nan              nan 
Li      0.00000000       1.50000000      -4.50000000        3        0       0.00000000              nan              nan              nan 
Li      1.50000000       0.00000000      -4.50000000        3        0       0.00000000              nan              nan              nan 
Li      0.00000000       0.00000000      -3.00000000        3        0       0.00000000              nan              nan              nan 
Li      0.00000000       1.50000000      -1.50000000        3        0       0.00000000              nan              nan              nan 
Li      1.50000000       0.00000000      -1.50000000        3        0       0.00000000              nan              nan              nan 
Li      1.50000000       1.50000000      -3.00000000        3        0       0.00000000              nan              nan              nan 
Li      0.00000000       0.00000000       0.00000000        3        0       0.00000000              nan              nan              nan 
Li      0.00000000       1.50000000       1.50000000        3        0       0.00000000              nan              nan              nan 
Li      1.50000000       0.00000000       1.50000000        3        0       0.00000000              nan              nan              nan 
Li      1.50000000       1.50000000       0.00000000        3        0       0.00000000              nan              nan              nan 
Li      0.00000000       0.00000000       3.00000000        3        0       0.00000000              nan              nan              nan 
Li      0.00000000       1.50000000       4.50000000        3        0       0.00000000              nan              nan              nan 
Li      1.50000000       0.00000000       4.50000000        3        0       0.00000000              nan              nan              nan 
Li      1.50000000       1.50000000       3.00000000        3        0       0.00000000              nan              nan              nan 
Li      1.50000000       3.00000000      -4.50000000        3        0       0.00000000              nan              nan              nan 
Li      0.00000000       3.00000000      -3.00000000        3        0       0.00000000              nan              nan              nan 
Li      0.00000000       4.50000000      -1.50000000        3        0       0.00000000              nan              nan              nan 
Li      1.50000000       3.00000000      -1.50000000        3        0       0.00000000              nan              nan              nan 
Li      1.50000000       4.50000000      -3.00000000        3        0       0.00000000              nan              nan              nan 
Li      0.00000000       3.00000000       0.00000000        3        0       0.00000000              nan              nan              nan 
Li      0.00000000       4.50000000       1.50000000        3        0       0.00000000              nan              nan              nan 
Li      1.50000000       3.00000000       1.50000000        3        0       0.00000000              nan              nan              nan 
Li      1.50000000       4.50000000       0.00000000        3        0       0.00000000              nan              nan              nan 
Li      0.00000000       3.00000000       3.00000000        3        0       0.00000000              nan              nan              nan 
Li      1.50000000       3.00000000       4.50000000        3        0       0.00000000              nan              nan              nan 
Li      1.50000000       4.50000000       3.00000000        3        0       0.00000000              nan              nan              nan 
Li      3.00000000      -4.50000000      -1.50000000        3        0       0.00000000              nan              nan              nan 
Li      3.00000000      -4.50000000       1.50000000        3        0       0.00000000              nan              nan              nan 
Li      3.00000000      -1.50000000      -4.50000000        3        0       0.00000000              nan              nan              nan 
Li      3.00000000      -3.00000000      -3.00000000        3        0       0.00000000              nan              nan              nan 
Li      3.00000000      -1.50000000      -1.50000000        3        0       0.00000000              nan              nan              nan 
Li      4.50000000      -3.00000000      -1.50000000        3        0       0.00000000              nan              nan              nan 
Li      4.50000000      -1.50000000      -3.00000000        3        0       0.00000000              nan              nan              nan 
Li      3.00000000      -3.00000000       0.00000000        3        0       0.00000000              nan              nan              nan 
Li      3.00000000      -1.50000000       1.50000000        3        0       0.00000000              nan              nan              nan 
Li      4.50000000      -3.00000000       1.50000000        3        0       0.00000000              nan              nan              nan 
Li      4.50000000      -1.50000000       0.00000000        3        0       0.00000000              nan              nan              nan 
Li      3.00000000      -3.00000000       3.00000000        3        0       0.00000000              nan              nan              nan 
Li      3.00000000      -1.50000000       4.50000000        3        0       0.00000000              nan              nan              nan 
Li      4.50000000      -1.50000000       3.00000000        3        0       0.00000000              nan              nan              nan 
Li      3.00000000       1.50000000      -4.50000000        3        0       0.00000000              nan              nan              nan 
Li      3.00000000       0.00000000      -3.00000000        3        0       0.00000000              nan              nan              nan 
Li      3.00000000       1.50000000      -1.50000000        3        0       0.00000000              nan              nan              nan 
Li      4.50000000       0.00000000      -1.50000000        3        0       0.00000000              nan              nan              nan 
Li      4.50000000       1.50000000      -3.00000000        3        0       0.00000000              nan              nan              nan 
Li      3.00000000       0.00000000       0.00000000        3        0       0.00000000              nan              nan              nan 
Li      3.00000000       1.50000000       1.50000000        3        0       0.00000000              nan              nan              nan 
Li      4.50000000       0.00000000       1.50000000        3        0       0.00000000              nan              nan              nan 
Li      4.50000000       1.50000000       0.00000000        3        0       0.00000000              nan              nan              nan 
Li      3.00000000       0.00000000       3.00000000        3        0       0.00000000              nan              nan              nan 
Li      3.00000000       1.50000000       4.50000000        3        0       0.00000000              nan              nan              nan 
Li      4.50000000       1.50000000       3.00000000        3        0       0.00000000              nan              nan              nan 
Li      3.00000000       3.00000000      -3.00000000        3        0       0.00000000              nan              nan              nan 
Li      3.00000000       4.50000000      -1.50000000        3        0       0.00000000              nan              nan              nan 
Li      4.50000000       3.00000000      -1.50000000        3        0       0.00000000              nan              nan              nan 
Li      3.00000000       3.00000000       0.00000000        3        0       0.00000000              nan              nan              nan 
Li      3.00000000       4.50000000       1.50000000        3        0       0.00000000              nan              nan              nan 
Li      4.50000000       3.00000000       1.50000000        3        0       0.00000000              nan              nan              nan 
Li      3.00000000       3.00000000       3.00000000        3        0       0.00000000              nan              nan              nan 
